# vtk DataFile Version 4.2
vtk output
ASCII
DATASET POLYDATA
POINTS 8 float
-0.5 -0.5 -0.5 0.5 -0.5 -0.5 0.5 0.5 -0.5 
-0.5 0.5 -0.5 -0.5 -0.5 0.5 0.5 -0.5 0.5 
0.5 0.5 0.5 -0.5 0.5 0.5 
POLYGONS 12 48
3 3 2 0 
3 2 1 0 
3 4 5 7 
3 5 6 7 
3 0 1 4 
3 1 5 4 
3 1 2 5 
3 2 6 5 
3 2 3 6 
3 3 7 6 
3 3 0 7 
3 0 4 7 

POINT_DATA 8
SCALARS scalars float
LOOKUP_TABLE default
0 1 2 3 4 5 6 7 
